% Model:              sheets _with_NP_V4.mph
% Version:            COMSOL 5.3.0.316
% Date:               Apr 14 2021, 14:08
% Table:              h0=1nm - Global Evaluation 6 (Rs, Ts)
% lambda0 (nm)                                    Rs (1)                                            Ts (1)
300                                               7.347264874230734                                 38.72212472578909
302.99999999999994                                8.200832739385081                                 38.343304880477405
306                                               9.318491957799612                                 38.575431462991254
309                                               10.545801056007418                                39.256324742769124
312                                               11.698185295612804                                40.163147025189495
314.99999999999994                                12.56938878402704                                 41.06257426972017
318                                               12.97461607060957                                 41.77446565251568
321                                               12.807944502895879                                42.22462729822173
324                                               12.07403885419501                                 42.4599567609509
326.99999999999994                                10.87609873109281                                 42.59204181603262
330                                               9.428836231268685                                 42.6908881403514
333                                               7.964336140377057                                 42.86528975366301
336                                               6.691838071193905                                 43.18426559175277
338.99999999999994                                5.788699229983499                                 43.66156023152556
342                                               5.386974019470964                                 44.23894775451686
345                                               5.528388535871231                                 44.82523208621535
348                                               6.1552906613328995                                45.41152731561629
350.99999999999994                                7.207077494525454                                 45.70385443184293
354                                               8.353764318632551                                 45.87742904101747
357                                               9.496785688286685                                 45.58937706977145
360                                               10.259015976016105                                45.227896794025035
362.99999999999994                                10.541631919388967                                44.5187262901188
366                                               10.375200710363274                                43.74564153794354
369                                               9.599004542996475                                 43.1397117371407
372                                               8.451934291338388                                 42.39477899525077
374.99999999999994                                7.233914542342593                                 41.87401113574718
378                                               5.943260595935435                                 41.71800073098029
381                                               4.817273635946992                                 41.63819429800234
384                                               4.317167064467744                                 41.46176765375299
386.99999999999994                                4.431260617319434                                 41.51654077856125
390                                               5.21337456716593                                  41.505117638473074
393                                               6.675345420866238                                 41.04114539670316
395.99999999999994                                8.805910927006828                                 39.841024713250924
398.99999999999994                                11.0961755966631                                  38.22857687100314
402                                               13.089355862793434                                36.182657382366045
405                                               14.392764500990681                                33.868352334529575
407.99999999999994                                14.739149419483727                                31.37192814519386
410.99999999999994                                14.435042489298656                                28.956506768907325
414                                               13.457863221173138                                27.12717933283864
417                                               11.834447036394806                                25.92891418324464
419.99999999999994                                9.732527758605363                                 25.364342512030074
422.99999999999994                                7.364050513196258                                 25.240384544747403
426                                               5.644243012893674                                 25.05980374045519
429                                               5.760296075503472                                 24.385433727915558
431.99999999999994                                8.671833127464186                                 22.030128178756126
434.99999999999994                                14.126546792117598                                17.490847473226115
438                                               19.70060652389586                                 12.135858377054847
441                                               23.162611216308182                                7.684086409290306
443.99999999999994                                24.556381139831704                                4.678256836727329
446.99999999999994                                24.900906503198794                                2.867056024884898
450                                               24.635099427675755                                1.799901672370163
453                                               23.870602784248945                                1.1606303143739083
455.99999999999994                                22.139530479288876                                0.7595670076945983
458.99999999999994                                19.886294605621956                                0.49979622339758284
462                                               18.387143954142623                                0.3375029840024479
465                                               17.363980438956503                                0.23425995701214114
467.99999999999994                                16.485617382966254                                0.16595403804904976
470.99999999999994                                15.660249538361338                                0.11948790579190323
474                                               14.860471784651963                                0.08720858121256564
477                                               14.07423875545545                                 0.06439517372745959
480                                               13.311934448699446                                0.048051423962419265
483                                               12.582732178541153                                0.036201280881200545
485.99999999999994                                11.892608515133213                                0.027515316104923575
488.99999999999994                                11.259969729873728                                0.02108979058430394
491.99999999999994                                10.632533786101117                                0.016261140133541626
494.99999999999994                                9.822467925766249                                 0.012550141425005129
49¢        ``!     "     !¨ 0!    0         $    :,97186¹846785635                                 0.0093273648385299
501   !                   "                     ! 8.1788614899!8614         "                       0.007597935670501741
504                       0                       7.42>610077944497                        $      $ °.0059657186623059254
507                                               6.7043538218661"    $                             0.00470939588486r54
509.99999999999994         $                      6*017997158299114          0      (           (   0.0037385422017483095
512.;999999999999                                 5.401379416867299                      "          0.00295$760870970698
516                                               4.903532142095313                   !             0.0024012:9030244555
519                                               4.38700103942456          $      0 $       "      0.0019257422504160786
522                     `        "                3.7162765422156165                                0.0015410771650784575
525                                               3.0129236284642156                                0.0012400480851200546
528                                               2.3508397385006266                                0.0010057736318033555
531                                               1.7502365972724379                                8.229117467702441E-4
533.9999999999999                                 1.219148494722192                                 6.800451177101437E-4
536.9999999999999                                 0.768912196723476                                 5.691811207655158E-4
540                                               0.4302536496497984                                4.841236271521741E-4
543                                               0.23538496034229153                               4.168654542379738E-4
546                                               0.13943613255659096                               3.566677226983185E-4
549                                               0.07877496904423968                               3.032651001382607E-4
552                                               0.12517769384034627                               2.623999762850981E-4
555                                               0.3524972606070159                                2.3280896574651147E-4
557.9999999999999                                 0.7939538549311213                                2.1131523714483679E-4
560.9999999999999                                 1.4640908623034834                                1.9579812943526463E-4
564                                               2.343955115770517                                 1.8457916353085204E-4
567                                               3.3575094602881266                                1.759857359416183E-4
570                                               4.313771894274318                                 1.6792540515673997E-4
573                                               4.995591822659903                                 1.5775722230565908E-4
576                                               5.828248769199802                                 1.464637649921668E-4
578.9999999999999                                 7.569693973129662                                 1.3889189717611382E-4
581.9999999999999                                 10.060497882930584                                1.351015541249342E-4
584.9999999999999                                 12.881365695595278                                1.3268892330221862E-4
588                                               15.841614413649244                                1.3037104009811895E-4
591                                               18.83613060488235                                 1.2766052553785242E-4
594                                               21.730041460516382                                1.2426956087187727E-4
597                                               24.31505882975792                                 1.1992872801887047E-4
600                                               26.279971383925414                                1.1431408328852472E-4
602.9999999999999                                 27.591095552926404                                1.076030649897986E-4
605.9999999999999                                 29.320250729940522                                1.0149084731576697E-4
608.9999999999999                                 32.484999216199                                   9.729806977367318E-5
612                                               36.414585636243835                                9.398766105748115E-5
615                                               40.27830780822266                                 9.051515294151633E-5
618                                               43.79798561769308                                 8.665709397322235E-5
621                                               46.92150670228678                                 8.248322714661826E-5
624                                               49.61290392848651                                 7.808519796364875E-5
626.9999999999999                                 51.787353700589044                                7.352319861240324E-5
629.9999999999999                                 53.331720322638475                                6.885722864435685E-5
632.9999999999999                                 54.3365639086313                                  6.427977854147358E-5
636                                               55.542534184867044                                6.02285766413305E-5
639                                               57.76374185579788                                 5.691780147594691E-5
642                                               60.61597464486604                                 5.396449354612323E-5
645                                               63.36009376049727                                 5.1040056843853056E-5
648                                               65.72353918951877                                 4.810365774895349E-5
650.9999999999999                                 67.69444963639062                                 4.5204014204375024E-5
653.9999999999999                                 69.30123174069983                                 4.238172507450654E-5
656.9999999999999                                 70.54679228404412                                 3.965791878606812E-5
660                                               71.41605383963771                                 3.704715431255885E-5
663                                               71.96916228072212                                 3.4584921690100204E-5
666                                               72.5330192876305                                  3.235199619989896E-5
669                                               73.58781710173866                                 3.0404473322971985E-5
672                                               75.12016533197851                                 2.8663951586330532E-5
674.9999999999999                                 76.70497955582265                                 2.7019741690541994E-5
677.9999999999999                                 78.08576161456334                                 2.5435102423751754E-5
680.9999999999999                                 79.21671365021098                                 2.3914458418025597E-5
684                                               80.11649058226644                                 2.2466463997779636E-5
687                                               80.80166969192693                                 2.109563022095865E-5
690                                               81.28069188164787                                 1.9805067669950072E-5
693                                               81.59072214762163                                 1.8602531131831773E-5
696                                               81.8740315883949                                  1.7503561860326346E-5
698.9999999999999                                 82.36475877689642                                 1.651579154304006E-5
701.9999999999999                                 83.1341716550107                                  1.5615260862874323E-5
704.9999999999999                                 84.00248284812074                                 1.4767136823065076E-5
708                                               84.79461380953771                                 1.3956627945250802E-5
711                                               85.45043056985648                                 1.3183619146506726E-5
714                                               85.96884440666705                                 1.2450336683288687E-5
717                                               86.36027550934477                                 1.1757596512650453E-5
720                                               86.63630737025343                                 1.1105416909547214E-5
722.9999999999999                                 86.82573270752579                                 1.0494748935013188E-5
725.9999999999999                                 87.00519310556406                                 9.928426998075092E-6
728.9999999999999                                 87.28649858187964                                 9.407914025976053E-6
732                                               87.70901430927132                                 8.927535939198492E-6
735                                               88.19396463045422                                 8.477345338739252E-6
738                                               88.64820725890323                                 8.050926983737975E-6
741                                               89.02964822143869                                 7.646242076992864E-6
744                                               89.33145729249694                                 7.262922742551655E-6
746.9999999999999                                 89.5587860633405                                  6.9008917965852E-6
749.9999999999999                                 89.72322763444684                                 6.5602859480425346E-6
752.9999999999999                                 89.85151266256987                                 6.241626651672744E-6
756                                               89.993707004957                                   5.9451772487468526E-6
759                                               90.19927446719912                                 5.669206839357329E-6
762                                               90.46833450684171                                 5.409752925291753E-6
765                                               90.75292884811735                                 5.163160053839064E-6
768                                               91.01439693555228                                 4.9281244929839675E-6
770.9999999999999                                 91.2316394908519                                  4.704235754504705E-6
773.9999999999999                                 91.40276913641671                                 4.491475846356429E-6
776.9999999999999                                 91.53380882986147                                 4.289768001072721E-6
780                                               91.63944947590362                                 4.099072026245945E-6
783                                               91.74538231901775                                 3.919390164312618E-6
786                                               91.87859069233083                                 3.750430149735624E-6
789                                               92.04501177913684                                 3.591251402068898E-6
791.9999999999999                                 92.22504977887024                                 3.440585401903001E-6
794.9999999999999                                 92.3945923091549                                  3.2974605009791447E-6
797.9999999999999                                 92.54021127481329                                 3.161358270237446E-6
