% Model:              sheets _with_NP_V3.mph
% Version:            COMSOL 5.3.0.316
% Date:               Apr 14 2021, 14:10
% Table:              h0=1nm - Global Evaluation 7 (Rs, Ts)
% lambda0 (nm)                                    Rs (1)                                            Ts (1)
300                                               15.726805303714666                                23.207216981941745
302.99999999999994                                16.628371187242703                                22.739229993648557
306                                               17.687505565084592                                22.816288191081654
309                                               18.80983270659946                                 23.30750234433952
312                                               19.87461278275113                                 24.029208830479373
314.99999999999994                                20.724043935749737                                24.764379850121994
318                                               21.19155075717875                                 25.315192816547064
321                                               21.16261337586611                                 25.57268388252988
324                                               20.626393497218295                                25.554287620525994
326.99999999999994                                19.678441313055174                                25.378245503934476
330                                               18.4795011353476                                  25.198736779571615
333                                               17.208693770980634                                25.149538952429594
336                                               16.035241213404625                                25.316862935226055
338.99999999999994                                15.107989164435379                                25.734495891829287
342                                               14.549001145019366                                26.386879956151116
345                                               14.438104288628729                                27.212152814352976
348                                               14.792878133907323                                28.09626879547615
350.99999999999994                                15.553535456953425                                28.893010100459346
354                                               16.546524604994858                                29.465532195285075
357                                               17.5171420623081                                  29.711049286775143
360                                               18.20031433757656                                 29.59465821167447
362.99999999999994                                18.3982864802697                                  29.160546336734946
366                                               18.032011587759012                                28.524967350753695
369                                               17.178011946907304                                27.814437694934945
372                                               15.964025696613819                                27.142484943942463
374.99999999999994                                14.617005237350181                                26.635203166132726
378                                               13.349926912439813                                26.301223842584836
381                                               12.3918591757595                                  26.221240143124845
384                                               11.9173680632122                                  26.309866141807372
386.99999999999994                                12.123301070879771                                26.54500302122668
390                                               13.004071512591317                                26.783402911825103
393                                               14.588080173523151                                26.79038137917494
395.99999999999994                                16.542752313844833                                26.44238140171752
398.99999999999994                                18.425298711118216                                25.507803363587037
402                                               19.8555431467207                                  23.98038274115448
405                                               20.412622524623096                                22.099095635156107
407.99999999999994                                19.978914048638952                                20.077224962468712
410.99999999999994                                18.864091964920572                                18.1697462164557
414                                               17.27489752907786                                 16.649363852126587
417                                               15.384609101508795                                15.5887093611095
419.99999999999994                                13.554901886945162                                14.964312053155137
422.99999999999994                                12.165721702510018                                14.813482306798011
426                                               11.55850955397264                                 14.988758297845699
429                                               12.405409387072176                                14.98121283257235
431.99999999999994                                15.232344362807762                                13.869014935372844
434.99999999999994                                18.841845916844168                                11.100854272891192
438                                               20.811537972626525                                7.554502038420988
441                                               20.349237788561865                                4.627172009827728
443.99999999999994                                18.50132882087187                                 2.7347783794304856
446.99999999999994                                16.246773094526016                                1.6340227536069762
450                                               13.884394491052479                                1.0039530859961119
453                                               11.497688227210382                                0.6331206530047963
455.99999999999994                                9.433725095439922                                 0.4090239440397422
458.99999999999994                                7.7245617167641205                                0.27217729535532065
462                                               6.210020007075488                                 0.18587743472539095
465                                               4.853943562727985                                 0.12968664163213325
467.99999999999994                                3.650908592713865                                 0.09214086456529577
470.99999999999994                                2.590803420118693                                 0.0664428155061377
474                                               1.6991600491724297                                0.048454231897253563
477                                               1.008885013790339                                 0.03574540492794466
480                                               0.5021749204864508                                0.02665617690484003
483                                               0.1708546387247929                                0.020062354384031558
485.99999999999994                                0.01390382373170215                               0.015209906145284047
488.99999999999994                                0.0389413599547289                                0.011583738383214918
491.99999999999994                                0.24129181816606554                               0.008867938841041052
494.99999999999994                                0.6058130122290292                                0.006827779625988316
498                                               1.1215511116145878                                0.0052836710534561
501                                               1.7834647537959762                                0.004106339418021327
504                                               2.602771939756095                                 0.003198012817214246
507                                               3.560898366705413                                 0.0024929834245187776
509.99999999999994                                4.615244659418195                                 0.0019484528789563708
512.9999999999999                                 5.747531824205837                                 0.0015273908535456257
516                                               6.944031315700248                                 0.0012007719678690683
519                                               8.210755181170518                                 9.460694355369736E-4
522                                               9.583579518185967                                 7.452025412385474E-4
525                                               11.028046424140824                                5.867616667610434E-4
528                                               12.487452709051832                                4.6272449115716954E-4
531                                               13.938389396513932                                3.6577864941071214E-4
533.9999999999999                                 15.364078525298877                                2.89996958009516E-4
536.9999999999999                                 16.790424594821367                                2.304224976847827E-4
540                                               18.308086790480015                                1.8287690296415774E-4
543                                               19.88783984532729                                 1.450756042345578E-4
546                                               21.435178882463703                                1.1546093731786946E-4
549                                               22.902828858068204                                9.24052339563502E-5
552                                               24.26791612695319                                 7.448957735609404E-5
555                                               25.604579486693734                                6.043555999389582E-5
557.9999999999999                                 27.076033751993783                                4.9216116299013474E-5
560.9999999999999                                 28.609719643932635                                4.040538814835001E-5
564                                               30.04925650217409                                 3.3675269096577966E-5
567                                               31.33414630849171                                 2.8606087969553964E-5
570                                               32.47094998436354                                 2.4778267697994647E-5
573                                               33.609659157702765                                2.176005069325174E-5
576                                               34.916437771715835                                1.933199903219142E-5
578.9999999999999                                 36.24725610577031                                 1.7544009715341362E-5
581.9999999999999                                 37.433280341923705                                1.6331777296533555E-5
584.9999999999999                                 38.43358262418183                                 1.5539646913238915E-5
588                                               39.29733025608709                                 1.5012242956404731E-5
591                                               40.219956392094694                                1.4632296664762373E-5
594                                               41.31085872962897                                 1.4407087292826672E-5
597                                               42.38229346797065                                 1.4364113370515045E-5
600                                               43.290530785202066                                1.4447921416567329E-5
602.9999999999999                                 44.023343682995616                                1.4576943563773187E-5
605.9999999999999                                 44.68523448714704                                 1.4674857212195619E-5
608.9999999999999                                 45.47151598069149                                 1.4745145673853799E-5
612                                               46.36874065811366                                 1.4874962679321794E-5
615                                               47.18848262664332                                 1.5074525632968922E-5
618                                               47.84764957673748                                 1.529235119289554E-5
621                                               48.38757289355243                                 1.548653263578476E-5
624                                               48.963326002752645                                1.5650762507040518E-5
626.9999999999999                                 49.67057339537378                                 1.5815136289019634E-5
629.9999999999999                                 50.3840932818959                                  1.5985765807656442E-5
632.9999999999999                                 50.980965328699426                                1.6132753785732953E-5
636                                               51.46409967660242                                 1.6225871128694775E-5
639                                               51.947921858046286                                1.6263410458967762E-5
642                                               52.53289481979113                                 1.6288293257557747E-5
645                                               53.14562132736356                                 1.6328372736628123E-5
648                                               53.67840728898322                                 1.6365808731028238E-5
650.9999999999999                                 54.1312680763683                                  1.6380828647738262E-5
653.9999999999999                                 54.598911246851664                                1.6374257516265747E-5
656.9999999999999                                 55.13921478254474                                 1.6354969285183126E-5
660                                               55.68406846071746                                 1.6316011341792395E-5
663                                               56.171455842420926                                1.6242514129361393E-5
666                                               56.634156839771066                                1.6133120914206036E-5
669                                               57.13785103700747                                 1.6006631256168288E-5
672                                               57.66979441722899                                 1.587828725917141E-5
674.9999999999999                                 58.179401161490794                                1.5744070323240656E-5
677.9999999999999                                 58.67474751400259                                 1.5597967836532163E-5
680.9999999999999                                 59.19416600362476                                 1.5438632235061495E-5
684                                               59.73062731222043                                 1.5261815446003234E-5
687                                               60.26202508703964                                 1.5063691519574884E-5
690                                               60.80007366406933                                 1.4848996319604212E-5
693                                               61.35499313931073                                 1.4625970475077463E-5
696                                               61.918214325328314                                1.4396973153731154E-5
698.9999999999999                                 62.490399991512135                                1.4160177978408961E-5
701.9999999999999                                 63.07470233581505                                 1.3913415771982566E-5
704.9999999999999                                 63.6688210052551                                  1.3656603910899325E-5
708                                               64.2711642637789                                  1.3391917013068574E-5
711                                               64.87807112029844                                 1.3120756734381778E-5
714                                               65.48391127977993                                 1.2843150498388558E-5
717                                               66.08369386516276                                 1.2559153497419298E-5
720                                               66.67533746848203                                 1.2269387261887367E-5
722.9999999999999                                 67.25945278786116                                 1.1974846062699032E-5
725.9999999999999                                 67.8376237556073                                  1.1676648521990785E-5
728.9999999999999                                 68.41126333087473                                 1.1375902816593424E-5
732                                               68.98128442320817                                 1.107365844635296E-5
735                                               69.5481330417958                                  1.0770885571606974E-5
738                                               70.11190506790615                                 1.0468468917241042E-5
741                                               70.67245399396789                                 1.0167217632394627E-5
744                                               71.22947167150868                                 9.867872668706998E-6
746.9999999999999                                 71.78254544900969                                 9.571109176030906E-6
749.9999999999999                                 72.33119857309151                                 9.277544590783266E-6
752.9999999999999                                 72.87491978429841                                 8.987746785994987E-6
756                                               73.41318525803963                                 8.702234236404064E-6
759                                               73.94547444089801                                 8.421474640017439E-6
762                                               74.47128145558828                                 8.145882797643901E-6
765                                               74.99012378375554                                 7.87581698442872E-6
768                                               75.50154903047375                                 7.6115795562268135E-6
770.9999999999999                                 76.00513968069306                                 7.353421982835969E-6
773.9999999999999                                 76.50051615197386                                 7.101551595880998E-6
776.9999999999999                                 76.9873388135985                                  6.856137303830118E-6
780                                               77.46530924438339                                 6.617311392494816E-6
783                                               77.93417093525859                                 6.385168921272398E-6
786                                               78.39371031076642                                 6.159768460427375E-6
789                                               78.84376188160547                                 5.9411351846498084E-6
791.9999999999999                                 79.2842558168386                                  5.7292595437067175E-6
794.9999999999999                                 79.71351766513457                                 5.524225643824595E-6
797.9999999999999                                 80.13526820710618                                 5.325739378031066E-6
